
Predictions were generated on 17-May-2022 at 15:23:41
 OpenFAST



AirfoilNumber    TableNumber      alpha0           alpha1           alpha2           eta_e            C_nalpha         C_lalpha         T_f0             T_V0             T_p              T_VL             b1               b2               b5               A1               A2               A5               S1               S2               S3               S4               Cn1              Cn2              St_sh            Cd0              Cm0              k0               k1               k2               k3               k1_hat           x_cp_bar         UACutout         UACutout_delta   UACutout_blend   filtCutOff       alphaLowerWrap   alphaLower       alphaUpper       alphaUpperWrap   c_alphaLowerWrap c_alphaLower     c_alphaUpper     c_alphaUpperWrap c_RateWrap       c_RateLower      c_Rate           c_RateUpper     
(-)              (-)              (deg)            (deg)            (deg)            (-)              (-/rad)          (-/rad)          (-)              (-)              (-)              (-)              (-)              (-)              (-)              (-)              (-)              (-)              (-)              (-)              (-)              (-)              (-)              (-)              (-)              (-)              (-)              (-)              (-)              (-)              (-)              (-)              (-)              (deg)            (deg)            (deg)            (-)              (deg)            (deg)            (deg)            (deg)            (-)              (-)              (-)              (-)              (-/rad)          (-/rad)          (-/rad)          (-/rad)         
               1                1         -4.24500         13.00000        -13.00000          1.00000          6.00900          9.25327          3.00000          6.00000          1.70000         11.00000          0.14000          0.53000          5.00000          0.30000          0.70000          1.00000          0.00000          0.00000          0.00000          0.00000          1.80900         -1.00000          0.19000          0.01072          0.00000          0.00000          0.00000          0.00000          0.00000          0.00000          0.20000         45.00000          5.00000         40.00000          0.50000        -82.00000         -3.00000          7.00000         22.00000         -8.36807          0.12130          1.17126          2.71469         -2.48045          6.15702          6.01586          5.89547 
               2                1         -4.25600         13.00000        -13.00000          1.00000          6.01900         10.08979          3.00000          6.00000          1.70000         11.00000          0.14000          0.53000          5.00000          0.30000          0.70000          1.00000          0.00000          0.00000          0.00000          0.00000          1.81300         -1.00000          0.19000          0.01012          0.00000          0.00000          0.00000          0.00000          0.00000          0.00000          0.20000         45.00000          5.00000         40.00000          0.50000        -82.00000         -3.00000          7.00000         24.00000         -8.36693          0.12259          1.17479          2.92819         -2.54789          6.15714          6.02865          5.90958 
               3                1         -4.27300         13.00000        -13.00000          1.00000          6.02800         10.89479          3.00000          6.00000          1.70000         11.00000          0.14000          0.53000          5.00000          0.30000          0.70000          1.00000          0.00000          0.00000          0.00000          0.00000          1.81700         -1.00000          0.19000          0.00943          0.00000          0.00000          0.00000          0.00000          0.00000          0.00000          0.20000         45.00000          5.00000         40.00000          0.50000        -82.00000         -3.00000          7.00000         24.00000         -8.38060          0.12499          1.17751          2.93092         -2.55158          6.16879          6.03049          5.90961 
               4                1         -4.28500         13.00000        -13.00000          1.00000          6.03400         11.61385          3.00000          6.00000          1.70000         11.00000          0.14000          0.53000          5.00000          0.30000          0.70000          1.00000          0.00000          0.00000          0.00000          0.00000          1.82000         -1.00000          0.19000          0.00903          0.00000          0.00000          0.00000          0.00000          0.00000          0.00000          0.20000         45.00000          5.00000         40.00000          0.50000        -82.00000         -3.00000          7.00000         24.00000         -8.40304          0.12648          1.17706          2.93042         -2.55653          6.18615          6.01935          5.90944 
               5                1         -3.29700         13.00000        -13.00000          1.00000          6.12800          6.48015          3.00000          6.00000          1.70000         11.00000          0.14000          0.53000          5.00000          0.30000          0.70000          1.00000          0.00000          0.00000          0.00000          0.00000          1.74300         -1.00000          0.19000          0.00795          0.00000          0.00000          0.00000          0.00000          0.00000          0.00000          0.20000         45.00000          5.00000         40.00000          0.50000        -78.00000         -1.00000          3.00000         26.00000         -7.73316          0.24361          0.67958          3.20778         -2.44871          5.93552          6.24485          6.29806 
               6                1         -2.48400         13.00000        -13.00000          1.00000          6.20400          6.59188          3.00000          6.00000          1.70000         11.00000          0.14000          0.53000          5.00000          0.30000          0.70000          1.00000          0.00000          0.00000          0.00000          0.00000          1.67700         -1.00000          0.19000          0.00715          0.00000          0.00000          0.00000          0.00000          0.00000          0.00000          0.20000         45.00000          5.00000         40.00000          0.50000        -76.00000         -1.00000          3.00000         26.00000         -7.36000          0.16013          0.60378          3.21615         -2.34872          5.74496          6.35483          6.50771 
               7                1         -1.78200         13.00000        -13.00000          1.00000          6.27100          6.78096          3.00000          6.00000          1.70000         11.00000          0.14000          0.53000          5.00000          0.30000          0.70000          1.00000          0.00000          0.00000          0.00000          0.00000          1.61800         -1.00000          0.19000          0.00644          0.00000          0.00000          0.00000          0.00000          0.00000          0.00000          0.20000         45.00000          5.00000         40.00000          0.50000        -76.00000         -1.00000          3.00000         26.00000         -7.21085          0.08630          0.53688          3.22405         -2.31735          5.57462          6.45395          6.69407 
               8                1         -1.40100         15.00000        -15.00000          1.00000          6.25800          6.91847          3.00000          6.00000          1.70000         11.00000          0.14000          0.53000          5.00000          0.30000          0.70000          1.00000          0.00000          0.00000          0.00000          0.00000          1.74900         -1.00000          0.19000          0.00620          0.00000          0.00000          0.00000          0.00000          0.00000          0.00000          0.20000         45.00000          5.00000         40.00000          0.50000        -86.00000         -5.00000          3.00000         34.00000         -6.61888         -0.28577          0.49833          4.17679         -2.57728          4.47976          5.61571          6.79871 
               9                1         -1.27800         15.00000        -15.00000          1.00000          6.15600          7.03306          3.00000          6.00000          1.70000         11.00000          0.14000          0.53000          5.00000          0.30000          0.70000          1.00000          0.00000          0.00000          0.00000          0.00000          1.74900         -1.00000          0.19000          0.00644          0.00000          0.00000          0.00000          0.00000          0.00000          0.00000          0.20000         45.00000          5.00000         40.00000          0.50000        -62.00000         -5.00000          3.00000         34.00000         -5.89227         -0.35715          0.48264          4.18289         -2.18661          5.56384          6.01459          6.83898 
              10                1         -1.23200         16.00000        -16.00000          1.00000          6.11800          7.07603          3.00000          6.00000          1.70000         11.00000          0.14000          0.53000          5.00000          0.30000          0.70000          1.00000          0.00000          0.00000          0.00000          0.00000          1.84000         -1.00000          0.19000          0.00653          0.00000          0.00000          0.00000          0.00000          0.00000          0.00000          0.20000         45.00000          5.00000         40.00000          0.50000        -52.00000         -5.00000          3.00000         34.00000         -5.27717         -0.38341          0.47690          4.18493         -1.97861          5.96579          6.16155          6.85338 
