
Predictions were generated on 17-May-2022 at 15:24:03
 OpenFAST



AirfoilNumber    TableNumber      alpha0           alpha1           alpha2           eta_e            C_nalpha         C_lalpha         T_f0             T_V0             T_p              T_VL             b1               b2               b5               A1               A2               A5               S1               S2               S3               S4               Cn1              Cn2              St_sh            Cd0              Cm0              k0               k1               k2               k3               k1_hat           x_cp_bar         UACutout         UACutout_delta   UACutout_blend   filtCutOff       alphaLowerWrap   alphaLower       alphaUpper       alphaUpperWrap   c_alphaLowerWrap c_alphaLower     c_alphaUpper     c_alphaUpperWrap c_RateWrap       c_RateLower      c_Rate           c_RateUpper     
(-)              (-)              (deg)            (deg)            (deg)            (-)              (-/rad)          (-/rad)          (-)              (-)              (-)              (-)              (-)              (-)              (-)              (-)              (-)              (-)              (-)              (-)              (-)              (-)              (-)              (-)              (-)              (-)              (-)              (-)              (-)              (-)              (-)              (-)              (-)              (deg)            (deg)            (deg)            (-)              (deg)            (deg)            (deg)            (deg)            (-)              (-)              (-)              (-)              (-/rad)          (-/rad)          (-/rad)          (-/rad)         
               1                1         -4.23000          4.00000         -4.00000          1.00000          2.71555          2.72155          3.00000          6.00000          1.70000         11.00000          0.14000          0.53000          5.00000          0.30000          0.70000          1.00000          0.00000          0.00000          0.00000          0.00000          1.85880         -0.80000          0.19000          0.01000          0.00000          0.00000          0.00000          0.00000          0.00000          0.00000          0.20000         45.00000          5.00000         40.00000          0.50000       -130.00000          2.00000         10.00000         70.00000         -5.97360          0.29498          0.67187          3.49485         -3.39064          2.72093          2.69929          2.69575 
               2                1        -10.15200         11.00000        -11.00000          1.00000          6.24900         10.45648          3.00000          6.00000          1.70000         11.00000          0.14000          0.53000          5.00000          0.30000          0.70000          1.00000          0.00000          0.00000          0.00000          0.00000          2.30700         -0.80000          0.19000          0.01710          0.00000          0.00000          0.00000          0.00000          0.00000          0.00000          0.20000         45.00000          5.00000         40.00000          0.50000        -50.00000         -4.50000         -3.00000         17.00000         -7.86062          0.47815          0.69375          3.17309         -2.15763         10.50058          8.23539          7.10279 
               3                1         -7.30000         12.00000        -12.00000          1.00000          6.07500          6.89841          3.00000          6.00000          1.70000         11.00000          0.14000          0.53000          5.00000          0.30000          0.70000          1.00000          0.00000          0.00000          0.00000          0.00000          2.04600         -0.80000          0.19000          0.01058          0.00000          0.00000          0.00000          0.00000          0.00000          0.00000          0.20000         45.00000          5.00000         40.00000          0.50000        -50.00000         -7.50000          1.50000         40.00000         -5.41142         -0.08075          0.83403          4.37739         -2.07725          7.18647          5.82366          5.27324 
               4                1         -6.09300         12.00000        -12.00000          1.00000          5.97700          6.88695          3.00000          6.00000          1.70000         11.00000          0.14000          0.53000          5.00000          0.30000          0.70000          1.00000          0.00000          0.00000          0.00000          0.00000          1.88700         -0.80000          0.19000          0.01075          0.00000          0.00000          0.00000          0.00000          0.00000          0.00000          0.20000         45.00000          5.00000         40.00000          0.50000        -50.00000         -7.50000          2.50000         40.00000         -5.03190         -0.17255          0.79882          4.04111         -1.92535          6.55107          5.56552          4.95386 
