
Predictions were generated on 17-May-2022 at 15:47:43
 OpenFAST



AirfoilNumber    TableNumber      alpha0           alpha1           alpha2           eta_e            C_nalpha         C_lalpha         T_f0             T_V0             T_p              T_VL             b1               b2               b5               A1               A2               A5               S1               S2               S3               S4               Cn1              Cn2              St_sh            Cd0              Cm0              k0               k1               k2               k3               k1_hat           x_cp_bar         UACutout         UACutout_delta   UACutout_blend   filtCutOff       alphaLowerWrap   alphaLower       alphaUpper       alphaUpperWrap   c_alphaLowerWrap c_alphaLower     c_alphaUpper     c_alphaUpperWrap c_RateWrap       c_RateLower      c_Rate           c_RateUpper     
(-)              (-)              (deg)            (deg)            (deg)            (-)              (-/rad)          (-/rad)          (-)              (-)              (-)              (-)              (-)              (-)              (-)              (-)              (-)              (-)              (-)              (-)              (-)              (-)              (-)              (-)              (-)              (-)              (-)              (-)              (-)              (-)              (-)              (-)              (-)              (deg)            (deg)            (deg)            (-)              (deg)            (deg)            (deg)            (deg)            (-)              (-)              (-)              (-)              (-/rad)          (-/rad)          (-/rad)          (-/rad)         
               1                1          0.00000          0.00000          0.00000          0.00000          0.00000          0.00000          0.00000          0.00000          0.00000          0.00000          0.00000          0.00000          0.00000          0.00000          0.00000          0.00000          0.00000          0.00000          0.00000          0.00000          0.00000          0.00000          0.00000          0.00000          0.00000          0.00000          0.00000          0.00000          0.00000          0.00000          0.00000          0.00000          0.00000          0.00000          0.00000          0.00000          0.00000          0.00000          0.00000          0.00000          0.00000          0.00000          0.00000          0.00000          0.00000          0.00000          0.00000 
               2                1          0.00000          0.00000          0.00000          0.00000          0.00000          0.00000          0.00000          0.00000          0.00000          0.00000          0.00000          0.00000          0.00000          0.00000          0.00000          0.00000          0.00000          0.00000          0.00000          0.00000          0.00000          0.00000          0.00000          0.00000          0.00000          0.00000          0.00000          0.00000          0.00000          0.00000          0.00000          0.00000          0.00000          0.00000          0.00000          0.00000          0.00000          0.00000          0.00000          0.00000          0.00000          0.00000          0.00000          0.00000          0.00000          0.00000          0.00000 
               3                1         -3.48060          9.49998         -9.49998          1.00000         21.32171         32.47457          3.00000          6.00000          1.70000         11.00000          0.14000          0.53000          5.00000          0.30000          0.70000          1.00000          0.00000          0.00000          0.00000          0.00000          0.42858         -0.16387          0.19000          0.38694         -0.00613          0.00000          0.00000          0.00000          0.00000          0.00000          0.20000         45.00000          5.00000         40.00000          0.50000        -26.00002         -2.25001         -1.75001         10.50002         -1.14560          0.05083          0.07667          0.69378         -0.32578          2.88632          2.96131          2.88632 
               4                1         -3.39615          9.49998         -9.49998          1.00000         22.21869         34.91564          3.00000          6.00000          1.70000         11.00000          0.14000          0.53000          5.00000          0.30000          0.70000          1.00000          0.00000          0.00000          0.00000          0.00000          0.84620         -0.30618          0.19000          0.19541         -0.01407          0.00000          0.00000          0.00000          0.00000          0.00000          0.20000         45.00000          5.00000         40.00000          0.50000        -65.00000         -2.25001          5.75000         10.99999         -5.47289          0.08931          0.93767          1.55322         -1.41749          5.07873          6.07587          6.71789 
               5                1         -3.31047          9.49998         -9.49998          1.00000          7.73923          7.73382          3.00000          6.00000          1.70000         11.00000          0.14000          0.53000          5.00000          0.30000          0.70000          1.00000          0.00000          0.00000          0.00000          0.00000          1.02601         -0.39850          0.19000          0.08694         -0.01598          0.00000          0.00000          0.00000          0.00000          0.00000          0.20000         45.00000          5.00000         40.00000          0.50000        -75.00000         -2.75000          6.74999         14.99998         -6.54907          0.04727          1.18701          2.21541         -1.85988          5.23104          6.87394          7.14217 
               6                1         -2.73146         10.00000        -10.00000          1.00000          7.85332          7.85178          3.00000          6.00000          1.70000         11.00000          0.14000          0.53000          5.00000          0.30000          0.70000          1.00000          0.00000          0.00000          0.00000          0.00000          1.03064         -0.42122          0.19000          0.04678         -0.01731          0.00000          0.00000          0.00000          0.00000          0.00000          0.20000         45.00000          5.00000         40.00000          0.50000        -50.00002         -0.75000          8.24999         12.49999         -6.17700          0.21541          1.37888          1.89543         -1.55467          7.43670          7.40694          6.96371 
               7                1         -2.26926          7.99998         -7.99998          1.00000          8.35586          8.37632          3.00000          6.00000          1.70000         11.00000          0.14000          0.53000          5.00000          0.30000          0.70000          1.00000          0.00000          0.00000          0.00000          0.00000          0.91016         -0.45485          0.19000          0.02832         -0.01922          0.00000          0.00000          0.00000          0.00000          0.00000          0.20000         45.00000          5.00000         40.00000          0.50000        -44.99999         -1.24999          8.75001         12.49999         -5.80117          0.12301          1.44611          1.91182         -1.46090          7.75841          7.58079          7.11564 
               8                1         -2.10080         10.00000        -10.00000          1.00000          8.17256          8.17307          3.00000          6.00000          1.70000         11.00000          0.14000          0.53000          5.00000          0.30000          0.70000          1.00000          0.00000          0.00000          0.00000          0.00000          1.13082         -0.71960          0.19000          0.01823         -0.02856          0.00000          0.00000          0.00000          0.00000          0.00000          0.20000         45.00000          5.00000         40.00000          0.50000        -40.00002         -1.75001          4.74999         20.00001         -4.84035          0.04378          0.91542          2.85953         -1.47057          7.31607          7.68329          7.30422 
               9                1         -2.01686         10.50003        -10.50003          1.00000          7.76836          7.75793          3.00000          6.00000          1.70000         11.00000          0.14000          0.53000          5.00000          0.30000          0.70000          1.00000          0.00000          0.00000          0.00000          0.00000          1.20317         -0.76928          0.19000          0.01215         -0.04166          0.00000          0.00000          0.00000          0.00000          0.00000          0.20000         45.00000          5.00000         40.00000          0.50000        -44.99999         -2.75000          5.75000         21.99998         -5.46365         -0.09197          1.00775          3.02559         -1.66006          7.28460          7.41290          7.11468 
              10                1         -1.99375         10.50003        -10.50003          1.00000          7.65693          7.64879          3.00000          6.00000          1.70000         11.00000          0.14000          0.53000          5.00000          0.30000          0.70000          1.00000          0.00000          0.00000          0.00000          0.00000          1.22803         -0.80133          0.19000          0.01029         -0.05183          0.00000          0.00000          0.00000          0.00000          0.00000          0.20000         45.00000          5.00000         40.00000          0.50000        -44.99999         -3.25002          5.75000         24.00000         -5.30192         -0.16033          0.99516          3.22072         -1.67805          7.05608          7.35612          6.98712 
              11                1         -2.00872         10.50003        -10.50003          1.00000          7.63428          7.62436          3.00000          6.00000          1.70000         11.00000          0.14000          0.53000          5.00000          0.30000          0.70000          1.00000          0.00000          0.00000          0.00000          0.00000          1.20391         -0.82500          0.19000          0.01030         -0.05978          0.00000          0.00000          0.00000          0.00000          0.00000          0.20000         45.00000          5.00000         40.00000          0.50000        -44.99999         -3.75001          5.75000         26.00002         -5.14031         -0.21958          0.99464          3.42128         -1.69738          6.83484          7.32310          6.86600 
              12                1         -2.04151         10.50003        -10.50003          1.00000          7.58632          7.57811          3.00000          6.00000          1.70000         11.00000          0.14000          0.53000          5.00000          0.30000          0.70000          1.00000          0.00000          0.00000          0.00000          0.00000          1.15757         -0.84781          0.19000          0.01033         -0.06703          0.00000          0.00000          0.00000          0.00000          0.00000          0.20000         45.00000          5.00000         40.00000          0.50000        -37.99999         -4.74999          5.75000         26.00002         -4.59324         -0.33812          0.99429          3.39172         -1.54562          7.33234          7.27060          6.78335 
              13                1         -2.08278         10.99999        -10.99999          1.00000          7.52918          7.76868          3.00000          6.00000          1.70000         11.00000          0.14000          0.53000          5.00000          0.30000          0.70000          1.00000          0.00000          0.00000          0.00000          0.00000          1.08855         -0.86760          0.19000          0.01036         -0.07360          0.00000          0.00000          0.00000          0.00000          0.00000          0.20000         45.00000          5.00000         40.00000          0.50000        -36.00003         -5.24998          5.75000         27.99999         -4.38833         -0.40589          0.99405          3.60550         -1.54734          7.42038          7.29191          6.72472 
              14                1         -2.13099         11.50001        -11.50001          1.00000          7.48893          8.06021          3.00000          6.00000          1.70000         11.00000          0.14000          0.53000          5.00000          0.30000          0.70000          1.00000          0.00000          0.00000          0.00000          0.00000          1.04298         -0.84137          0.19000          0.01038         -0.07979          0.00000          0.00000          0.00000          0.00000          0.00000          0.20000         45.00000          5.00000         40.00000          0.50000        -36.00003         -5.75000          5.75000         27.99999         -4.32027         -0.47581          0.99389          3.58854         -1.53088          7.28169          7.32237          6.68147 
              15                1         -2.18866         11.50001        -11.50001          1.00000          7.44920          8.26305          3.00000          6.00000          1.70000         11.00000          0.14000          0.53000          5.00000          0.30000          0.70000          1.00000          0.00000          0.00000          0.00000          0.00000          1.04378         -1.20893          0.19000          0.01040         -0.08589          0.00000          0.00000          0.00000          0.00000          0.00000          0.20000         45.00000          5.00000         40.00000          0.50000        -34.00000         -5.75000          5.75000         27.99999         -4.22351         -0.48126          0.99378          3.57626         -1.49964          7.58992          7.34900          6.65012 
              16                1         -2.26011         11.50001        -11.50001          1.00000          7.50378          8.34820          3.00000          6.00000          1.70000         11.00000          0.14000          0.53000          5.00000          0.30000          0.70000          1.00000          0.00000          0.00000          0.00000          0.00000          1.03239         -1.24267          0.19000          0.01039         -0.09185          0.00000          0.00000          0.00000          0.00000          0.00000          0.20000         45.00000          5.00000         40.00000          0.50000        -31.99998         -5.75000          5.75000         27.99999         -4.02275         -0.48356          0.99376          3.56952         -1.45002          7.72499          7.36034          6.63283 
              17                1         -2.37872         11.50001        -11.50001          1.00000          7.49260          8.56529          3.00000          6.00000          1.70000         11.00000          0.14000          0.53000          5.00000          0.30000          0.70000          1.00000          0.00000          0.00000          0.00000          0.00000          1.03854         -1.22072          0.19000          0.01019         -0.09768          0.00000          0.00000          0.00000          0.00000          0.00000          0.20000         45.00000          5.00000         40.00000          0.50000        -31.99998         -5.75000          5.75000         27.99999         -4.04872         -0.47537          1.00371          3.59213         -1.45930          7.79956          7.36909          6.66543 
              18                1         -2.58200         11.50001        -11.50001          1.00000          7.45126          8.62224          3.00000          6.00000          1.70000         11.00000          0.14000          0.53000          5.00000          0.30000          0.70000          1.00000          0.00000          0.00000          0.00000          0.00000          1.05683         -1.06696          0.19000          0.00972         -0.10397          0.00000          0.00000          0.00000          0.00000          0.00000          0.20000         45.00000          5.00000         40.00000          0.50000        -34.00000         -5.75000          5.75000         26.00002         -4.40036         -0.45093          1.03204          3.41926         -1.49344          8.01011          7.38850          6.75445 
              19                1         -2.83068          9.00002         -9.00002          1.00000          7.56207          8.48276          3.00000          6.00000          1.70000         11.00000          0.14000          0.53000          5.00000          0.30000          0.70000          1.00000          0.00000          0.00000          0.00000          0.00000          1.08234         -1.01925          0.19000          0.00909         -0.10904          0.00000          0.00000          0.00000          0.00000          0.00000          0.20000         45.00000          5.00000         40.00000          0.50000        -34.00000         -6.25000          5.75000         27.99999         -4.30109         -0.48676          1.06873          3.72053         -1.54230          7.87550          7.42692          6.82864 
              20                1         -3.07049          8.50000         -8.50000          1.00000          7.46461          8.55394          3.00000          6.00000          1.70000         11.00000          0.14000          0.53000          5.00000          0.30000          0.70000          1.00000          0.00000          0.00000          0.00000          0.00000          1.10722         -0.96971          0.19000          0.00846         -0.11189          0.00000          0.00000          0.00000          0.00000          0.00000          0.20000         45.00000          5.00000         40.00000          0.50000        -36.00003         -6.74999          5.75000         27.99999         -4.50873         -0.52450          1.09988          3.74609         -1.59786          7.80443          7.44561          6.81422 
              21                1         -3.25083          8.50000         -8.50000          1.00000          7.57702          8.58748          3.00000          6.00000          1.70000         11.00000          0.14000          0.53000          5.00000          0.30000          0.70000          1.00000          0.00000          0.00000          0.00000          0.00000          1.12524         -0.93005          0.19000          0.00797         -0.11260          0.00000          0.00000          0.00000          0.00000          0.00000          0.20000         45.00000          5.00000         40.00000          0.50000        -34.00000         -7.25001          5.75000         27.99999         -4.35286         -0.57005          1.11664          3.71605         -1.55139          8.10241          7.43386          6.69373 
              22                1         -3.39696          8.50000         -8.50000          1.00000          7.50941          8.54663          3.00000          6.00000          1.70000         11.00000          0.14000          0.53000          5.00000          0.30000          0.70000          1.00000          0.00000          0.00000          0.00000          0.00000          1.13919         -0.89369          0.19000          0.00757         -0.11264          0.00000          0.00000          0.00000          0.00000          0.00000          0.20000         45.00000          5.00000         40.00000          0.50000        -34.00000         -7.25001          5.24998         27.99999         -4.34204         -0.54913          1.06715          3.87334         -1.57955          8.12403          7.40851          7.06737 
              23                1         -3.54670          8.50000         -8.50000          1.00000          7.42962          8.44946          3.00000          6.00000          1.70000         11.00000          0.14000          0.53000          5.00000          0.30000          0.70000          1.00000          0.00000          0.00000          0.00000          0.00000          1.15364         -0.85374          0.19000          0.00716         -0.11279          0.00000          0.00000          0.00000          0.00000          0.00000          0.20000         45.00000          5.00000         40.00000          0.50000        -36.00003         -7.25001          5.24998         26.00002         -4.48071         -0.52150          1.07696          3.58875         -1.55150          7.89029          7.32682          6.93564 
              24                1         -3.68979          9.00002         -9.00002          1.00000          7.34282          8.35226          3.00000          6.00000          1.70000         11.00000          0.14000          0.53000          5.00000          0.30000          0.70000          1.00000          0.00000          0.00000          0.00000          0.00000          1.15186         -0.57817          0.19000          0.00681         -0.11295          0.00000          0.00000          0.00000          0.00000          0.00000          0.20000         45.00000          5.00000         40.00000          0.50000        -37.99999         -6.74999          4.74999         26.00002         -4.50101         -0.42692          1.02682          3.54645         -1.55772          7.46971          7.24288          6.79360 
              25                1         -3.82080          9.00002         -9.00002          1.00000          7.51101          8.24333          3.00000          6.00000          1.70000         11.00000          0.14000          0.53000          5.00000          0.30000          0.70000          1.00000          0.00000          0.00000          0.00000          0.00000          1.15906         -0.82460          0.19000          0.00651         -0.11307          0.00000          0.00000          0.00000          0.00000          0.00000          0.20000         45.00000          5.00000         40.00000          0.50000        -40.00002         -6.25000          4.74999         26.00002         -4.80684         -0.33696          1.03433          3.49781         -1.61844          7.58830          7.14264          6.64221 
              26                1         -3.93558         10.99999        -10.99999          1.00000          7.43405          8.13479          3.00000          6.00000          1.70000         11.00000          0.14000          0.53000          5.00000          0.30000          0.70000          1.00000          0.00000          0.00000          0.00000          0.00000          1.16502         -0.79859          0.19000          0.00629         -0.11307          0.00000          0.00000          0.00000          0.00000          0.00000          0.20000         45.00000          5.00000         40.00000          0.50000        -44.99999         -6.25000          4.74999         26.00002         -5.22946         -0.31662          1.03987          3.44568         -1.71989          7.26412          7.06557          6.48672 
              27                1         -4.01316         10.99999        -10.99999          1.00000          7.37929          8.05498          3.00000          6.00000          1.70000         11.00000          0.14000          0.53000          5.00000          0.30000          0.70000          1.00000          0.00000          0.00000          0.00000          0.00000          1.16891         -0.78769          0.19000          0.00616         -0.11296          0.00000          0.00000          0.00000          0.00000          0.00000          0.20000         45.00000          5.00000         40.00000          0.50000        -40.00002         -5.75000          4.25000         24.00000         -4.83479         -0.23848          0.98672          3.29282         -1.57324          7.68902          7.01989          6.69011 
              28                1         -4.04075         10.99999        -10.99999          1.00000          7.35867          8.02451          3.00000          6.00000          1.70000         11.00000          0.14000          0.53000          5.00000          0.30000          0.70000          1.00000          0.00000          0.00000          0.00000          0.00000          1.17031         -0.78387          0.19000          0.00613         -0.11290          0.00000          0.00000          0.00000          0.00000          0.00000          0.20000         45.00000          5.00000         40.00000          0.50000        -40.00002         -5.75000          4.25000         24.00000         -4.79846         -0.23397          0.98814          3.28451         -1.56459          7.63579          7.00217          6.66190 
              29                1         -4.04075         10.99999        -10.99999          1.00000          7.35867          8.02451          3.00000          6.00000          1.70000         11.00000          0.14000          0.53000          5.00000          0.30000          0.70000          1.00000          0.00000          0.00000          0.00000          0.00000          1.17031         -0.78387          0.19000          0.00613         -0.11290          0.00000          0.00000          0.00000          0.00000          0.00000          0.20000         45.00000          5.00000         40.00000          0.50000        -40.00002         -5.75000          4.25000         24.00000         -4.79846         -0.23397          0.98814          3.28451         -1.56459          7.63579          7.00217          6.66190 
              30                1         -4.04075         10.99999        -10.99999          1.00000          7.35867          8.02451          3.00000          6.00000          1.70000         11.00000          0.14000          0.53000          5.00000          0.30000          0.70000          1.00000          0.00000          0.00000          0.00000          0.00000          1.17031         -0.78387          0.19000          0.00613         -0.11290          0.00000          0.00000          0.00000          0.00000          0.00000          0.20000         45.00000          5.00000         40.00000          0.50000        -40.00002         -5.75000          4.25000         24.00000         -4.79846         -0.23397          0.98814          3.28451         -1.56459          7.63579          7.00217          6.66190 
